REMARK  Name = DPH 
REMARK  4 active torsions:
REMARK  status: ('A' for Active; 'I' for Inactive)
REMARK    1  A    between atoms: C_4  and  C_7
REMARK    2  A    between atoms: C_8  and  C_9
REMARK    3  A    between atoms: C_10  and  C_11
REMARK    4  A    between atoms: C_12  and  C_13
REMARK                            x       y       z     vdW  Elec       q    Type
REMARK                         _______ _______ _______ _____ _____    ______ ____
ROOT
ATOM      1  C   DPH     1      -5.206  -0.323  -0.450  0.00  0.00    +0.000 C 
ATOM      2  C   DPH     1      -6.095  -1.323  -0.567  0.00  0.00    +0.000 C 
ENDROOT
BRANCH   1   4
ATOM      3  C   DPH     1      -2.864   0.392  -0.166  0.00  0.00    +0.000 C 
ATOM      4  C   DPH     1      -3.788  -0.573  -0.306  0.00  0.00    +0.000 C 
BRANCH   3   8
ATOM      5  C   DPH     1       1.393  -0.176   0.032  0.00  0.00    +0.000 A 
ATOM      6  C   DPH     1       0.843   1.103   0.021  0.00  0.00    +0.000 A 
ATOM      7  C   DPH     1      -0.546   1.271  -0.021  0.00  0.00    +0.000 A 
ATOM      8  C   DPH     1      -1.406   0.163  -0.063  0.00  0.00    +0.000 A 
ATOM      9  C   DPH     1      -0.831  -1.116  -0.026  0.00  0.00    +0.000 A 
ATOM     10  C   DPH     1       0.556  -1.286   0.018  0.00  0.00    +0.000 A 
ENDBRANCH   3   8
ENDBRANCH   1   4
BRANCH   2  11
ATOM     11  C   DPH     1      -7.513  -1.106  -0.743  0.00  0.00    +0.000 C 
ATOM     12  C   DPH     1      -8.399  -2.110  -0.848  0.00  0.00    +0.000 C 
BRANCH  12  13
ATOM     13  C   DPH     1      -9.834  -1.900  -1.079  0.00  0.00    +0.000 A 
ATOM     14  C   DPH     1     -10.768  -2.713  -0.427  0.00  0.00    +0.000 A 
ATOM     15  C   DPH     1     -12.136  -2.566  -0.680  0.00  0.00    +0.000 A 
ATOM     16  C   DPH     1     -12.579  -1.608  -1.591  0.00  0.00    +0.000 A 
ATOM     17  C   DPH     1     -11.657  -0.799  -2.250  0.00  0.00    +0.000 A 
ATOM     18  C   DPH     1     -10.292  -0.948  -2.000  0.00  0.00    +0.000 A 
ENDBRANCH  12  13
ENDBRANCH   2  11
TORSDOF 4
