REMARK  Name = nile_red.pdb
REMARK  3 active torsions:
REMARK  status: ('A' for Active; 'I' for Inactive)
REMARK    1  A    between atoms: C2_2  and  N1_3
REMARK    2  A    between atoms: N1_3  and  C3_4
REMARK    3  A    between atoms: N1_3  and  C5_6
REMARK                            x       y       z     vdW  Elec       q    Type
REMARK                         _______ _______ _______ _____ _____    ______ ____
ROOT
ATOM      1  C5  NRD     1       3.398   0.257  -0.015  0.00  0.00    +0.000 A 
ATOM      2  C6  NRD     1       2.443  -0.651   0.473  0.00  0.00    +0.000 A 
ATOM      3  C7  NRD     1       1.078  -0.366   0.385  0.00  0.00    +0.000 A 
ATOM      4  C8  NRD     1       0.653   0.850  -0.203  0.00  0.00    +0.000 A 
ATOM      5  C9  NRD     1       1.598   1.755  -0.689  0.00  0.00    +0.000 A 
ATOM      6  C10 NRD     1       2.960   1.459  -0.596  0.00  0.00    +0.000 A 
ATOM      7  N2  NRD     1      -0.672   1.134  -0.292  0.00  0.00    +0.000 NA
ATOM      8  C11 NRD     1      -1.594   0.257   0.181  0.00  0.00    +0.000 A 
ATOM      9  C12 NRD     1      -2.971   0.504   0.112  0.00  0.00    +0.000 A 
ATOM     10  C13 NRD     1      -3.461   1.689  -0.458  0.00  0.00    +0.000 A 
ATOM     11  C14 NRD     1      -4.836   1.925  -0.521  0.00  0.00    +0.000 A 
ATOM     12  C15 NRD     1      -5.733   0.982  -0.017  0.00  0.00    +0.000 A 
ATOM     13  C16 NRD     1      -5.259  -0.202   0.553  0.00  0.00    +0.000 A 
ATOM     14  C17 NRD     1      -3.880  -0.458   0.626  0.00  0.00    +0.000 A 
ATOM     15  C18 NRD     1      -3.407  -1.656   1.203  0.00  0.00    +0.000 A 
ATOM     16  O1  NRD     1      -4.215  -2.510   1.659  0.00  0.00    +0.000 OA
ATOM     17  C19 NRD     1      -2.036  -1.921   1.281  0.00  0.00    +0.000 A 
ATOM     18  C20 NRD     1      -1.114  -1.003   0.788  0.00  0.00    +0.000 A 
ATOM     19  O2  NRD     1       0.189  -1.237   0.854  0.00  0.00    +0.000 OA
ENDROOT
BRANCH   1  20
ATOM     20  N1  NRD     1       4.808  -0.042   0.079  0.00  0.00    +0.000 N 
BRANCH  20  22
ATOM     21  C1  NRD     1       5.174  -0.899   2.337  0.00  0.00    +0.000 C 
ATOM     22  C2  NRD     1       5.295  -1.180   0.851  0.00  0.00    +0.000 C 
ENDBRANCH  20  22
BRANCH  20  23
ATOM     23  C3  NRD     1       5.807   0.781  -0.595  0.00  0.00    +0.000 C 
ATOM     24  C4  NRD     1       5.773   0.530  -2.092  0.00  0.00    +0.000 C 
ENDBRANCH  20  23
ENDBRANCH   1  20
TORSDOF 3
