MODEL 1
REMARK VINA RESULT:    -9.144      0.000      0.000
REMARK INTER + INTRA:          -9.144
REMARK INTER:                  -9.144
REMARK INTRA:                   0.000
REMARK UNBOUND:                 0.000
REMARK  Name = ../example/scapCC4_Stauro/STR.pdb
REMARK  0 active torsions:
REMARK  status: ('A' for Active; 'I' for Inactive)
REMARK                            x       y       z     vdW  Elec       q    Type
REMARK                         _______ _______ _______ _____ _____    ______ ____
ROOT
ATOM      1  C1  STR     1      -2.284   3.705  -0.747  0.00  0.00    +0.000 C 
ATOM      2  C2  STR     1      -1.674   2.355  -0.523  0.00  0.00    +0.000 A 
ATOM      3  C3  STR     1      -2.201   1.227   0.128  0.00  0.00    +0.000 A 
ATOM      4  C4  STR     1      -3.392   0.975   0.753  0.00  0.00    +0.000 A 
ATOM      5  C5  STR     1      -4.514   1.772   0.962  0.00  0.00    +0.000 A 
ATOM      6  C6  STR     1      -5.592   1.197   1.656  0.00  0.00    +0.000 A 
ATOM      7  C7  STR     1      -5.524  -0.137   2.117  0.00  0.00    +0.000 A 
ATOM      8  C8  STR     1      -4.375  -0.917   1.890  0.00  0.00    +0.000 A 
ATOM      9  C9  STR     1      -3.316  -0.330   1.200  0.00  0.00    +0.000 A 
ATOM     10  N1  STR     1      -2.138  -0.923   0.891  0.00  0.00    +0.000 NA
ATOM     11  C10 STR     1      -1.468   0.051   0.233  0.00  0.00    +0.000 A 
ATOM     12  C11 STR     1      -0.183  -0.015  -0.318  0.00  0.00    +0.000 A 
ATOM     13  C12 STR     1       0.346   1.097  -0.964  0.00  0.00    +0.000 A 
ATOM     14  C13 STR     1      -0.400   2.284  -1.067  0.00  0.00    +0.000 A 
ATOM     15  C14 STR     1      -0.133   3.570  -1.660  0.00  0.00    +0.000 C 
ATOM     16  O1  STR     1       0.924   3.904  -2.256  0.00  0.00    +0.000 OA
ATOM     17  N2  STR     1      -1.247   4.439  -1.482  0.00  0.00    +0.000 NA
ATOM     18  C15 STR     1       1.595   0.717  -1.383  0.00  0.00    +0.000 A 
ATOM     19  C16 STR     1       2.590   1.399  -2.079  0.00  0.00    +0.000 A 
ATOM     20  C17 STR     1       3.779   0.703  -2.355  0.00  0.00    +0.000 A 
ATOM     21  C18 STR     1       3.945  -0.634  -1.936  0.00  0.00    +0.000 A 
ATOM     22  C19 STR     1       2.924  -1.299  -1.234  0.00  0.00    +0.000 A 
ATOM     23  C20 STR     1       1.750  -0.594  -0.969  0.00  0.00    +0.000 A 
ATOM     24  N3  STR     1       0.666  -1.068  -0.310  0.00  0.00    +0.000 NA
ENDROOT
TORSDOF 0
ENDMDL
