MODEL 1
REMARK VINA RESULT:    -9.147      0.000      0.000
REMARK INTER + INTRA:          -9.147
REMARK INTER:                  -9.147
REMARK INTRA:                   0.000
REMARK UNBOUND:                 0.000
REMARK  Name = ../example/scapCC4_Stauro/STR.pdb
REMARK  0 active torsions:
REMARK  status: ('A' for Active; 'I' for Inactive)
REMARK                            x       y       z     vdW  Elec       q    Type
REMARK                         _______ _______ _______ _____ _____    ______ ____
ROOT
ATOM      1  C1  STR     1      -2.291   3.731  -0.751  0.00  0.00    +0.000 C 
ATOM      2  C2  STR     1      -1.677   2.383  -0.522  0.00  0.00    +0.000 A 
ATOM      3  C3  STR     1      -2.195   1.261   0.145  0.00  0.00    +0.000 A 
ATOM      4  C4  STR     1      -3.377   1.014   0.788  0.00  0.00    +0.000 A 
ATOM      5  C5  STR     1      -4.498   1.812   1.003  0.00  0.00    +0.000 A 
ATOM      6  C6  STR     1      -5.567   1.243   1.716  0.00  0.00    +0.000 A 
ATOM      7  C7  STR     1      -5.492  -0.087   2.188  0.00  0.00    +0.000 A 
ATOM      8  C8  STR     1      -4.346  -0.868   1.954  0.00  0.00    +0.000 A 
ATOM      9  C9  STR     1      -3.296  -0.287   1.246  0.00  0.00    +0.000 A 
ATOM     10  N1  STR     1      -2.121  -0.882   0.927  0.00  0.00    +0.000 NA
ATOM     11  C10 STR     1      -1.460   0.086   0.252  0.00  0.00    +0.000 A 
ATOM     12  C11 STR     1      -0.181   0.016  -0.314  0.00  0.00    +0.000 A 
ATOM     13  C12 STR     1       0.339   1.123  -0.976  0.00  0.00    +0.000 A 
ATOM     14  C13 STR     1      -0.409   2.308  -1.081  0.00  0.00    +0.000 A 
ATOM     15  C14 STR     1      -0.150   3.589  -1.688  0.00  0.00    +0.000 C 
ATOM     16  O1  STR     1       0.898   3.918  -2.300  0.00  0.00    +0.000 OA
ATOM     17  N2  STR     1      -1.262   4.459  -1.504  0.00  0.00    +0.000 NA
ATOM     18  C15 STR     1       1.582   0.739  -1.407  0.00  0.00    +0.000 A 
ATOM     19  C16 STR     1       2.569   1.416  -2.121  0.00  0.00    +0.000 A 
ATOM     20  C17 STR     1       3.755   0.718  -2.406  0.00  0.00    +0.000 A 
ATOM     21  C18 STR     1       3.926  -0.615  -1.977  0.00  0.00    +0.000 A 
ATOM     22  C19 STR     1       2.914  -1.274  -1.257  0.00  0.00    +0.000 A 
ATOM     23  C20 STR     1       1.744  -0.567  -0.984  0.00  0.00    +0.000 A 
ATOM     24  N3  STR     1       0.668  -1.036  -0.307  0.00  0.00    +0.000 NA
ENDROOT
TORSDOF 0
ENDMDL
