REMARK  Name = LMF_ox_arom.pdb
REMARK  3 active torsions:
REMARK  status: ('A' for Active; 'I' for Inactive)
REMARK    1  A    between atoms: C5_5  and  C16_16
REMARK    2  A    between atoms: C6_6  and  C15_15
REMARK    3  A    between atoms: N10_10  and  C17_17
REMARK                            x       y       z     vdW  Elec       q    Type
REMARK                         _______ _______ _______ _____ _____    ______ ____
ROOT
ATOM      1  C1  LMF     0       3.122   4.228   1.488  0.00  0.00    +0.000 C 
ATOM      2  C2  LMF     0       4.256   3.802   0.780  0.00  0.00    +0.000 C 
ATOM      3  C3  LMF     0       4.994   2.730   1.287  0.00  0.00    +0.000 C 
ATOM      4  C4  LMF     0       4.616   2.099   2.466  0.00  0.00    +0.000 C 
ATOM      5  C5  LMF     0       3.495   2.527   3.160  0.00  0.00    +0.000 C 
ATOM      6  C6  LMF     0       2.744   3.594   2.672  0.00  0.00    +0.000 C 
ATOM      7  N7  LMF     0       6.074   2.288   0.655  0.00  0.00    +0.000 NA
ATOM      8  C8  LMF     0       6.478   2.855  -0.474  0.00  0.00    +0.000 A 
ATOM      9  C9  LMF     0       5.752   3.921  -0.990  0.00  0.00    +0.000 A 
ATOM     10  N10 LMF     0       4.653   4.385  -0.364  0.00  0.00    +0.000 N 
ATOM     11  N11 LMF     0       6.193   4.457  -2.122  0.00  0.00    +0.000 NA
ATOM     12  C12 LMF     0       7.286   3.999  -2.748  0.00  0.00    +0.000 A 
ATOM     13  N13 LMF     0       8.007   2.973  -2.278  0.00  0.00    +0.000 N 
ATOM     14  C14 LMF     0       7.618   2.388  -1.143  0.00  0.00    +0.000 A 
ATOM     15  C15 LMF     0       1.510   4.082   3.415  0.00  0.00    +0.000 C 
ATOM     16  C16 LMF     0       3.120   1.812   4.438  0.00  0.00    +0.000 C 
ATOM     17  C17 LMF     0       3.896   5.533  -0.944  0.00  0.00    +0.000 C 
ATOM     18  O18 LMF     0       7.620   4.560  -3.795  0.00  0.00    +0.000 OA
ATOM     19  O19 LMF     0       8.253   1.439  -0.673  0.00  0.00    +0.000 OA
ATOM     20  H3  LMF     0       8.859   2.635  -2.790  0.00  0.00    +0.000 HD
ENDROOT
TORSDOF 0
