MODEL 1
REMARK VINA RESULT:    -7.704      0.000      0.000
REMARK INTER + INTRA:          -9.369
REMARK INTER:                  -9.056
REMARK INTRA:                  -0.314
REMARK UNBOUND:                -0.314
REMARK  Name = NileRed 
REMARK  5 active torsions:
REMARK  status: ('A' for Active; 'I' for Inactive)
REMARK    1  A    between atoms: C_1  and  C_2
REMARK    2  A    between atoms: C_2  and  N_3
REMARK    3  A    between atoms: N_3  and  C_4
REMARK    4  A    between atoms: N_3  and  C_6
REMARK    5  A    between atoms: C_4  and  C_5
REMARK                            x       y       z     vdW  Elec       q    Type
REMARK                         _______ _______ _______ _____ _____    ______ ____
ROOT
ATOM      1  C   NRD     1      -3.364  -0.058   2.905  0.00  0.00    +0.000 A 
ATOM      2  C   NRD     1      -3.214  -0.544   4.214  0.00  0.00    +0.000 A 
ATOM      3  C   NRD     1      -2.198  -0.072   5.058  0.00  0.00    +0.000 A 
ATOM      4  C   NRD     1      -1.297   0.904   4.630  0.00  0.00    +0.000 A 
ATOM      5  C   NRD     1      -1.433   1.402   3.338  0.00  0.00    +0.000 A 
ATOM      6  C   NRD     1      -2.447   0.926   2.490  0.00  0.00    +0.000 A 
ATOM      7  N   NRD     1      -0.266   1.402   5.444  0.00  0.00    +0.000 NA
ATOM      8  C   NRD     1      -0.169   0.900   6.637  0.00  0.00    +0.000 A 
ATOM      9  C   NRD     1       0.897   1.372   7.554  0.00  0.00    +0.000 A 
ATOM     10  C   NRD     1       1.795   2.364   7.131  0.00  0.00    +0.000 A 
ATOM     11  C   NRD     1       2.799   2.819   7.988  0.00  0.00    +0.000 A 
ATOM     12  C   NRD     1       2.915   2.288   9.273  0.00  0.00    +0.000 A 
ATOM     13  C   NRD     1       2.028   1.300   9.699  0.00  0.00    +0.000 A 
ATOM     14  C   NRD     1       1.018   0.843   8.838  0.00  0.00    +0.000 A 
ATOM     15  C   NRD     1       0.088  -0.203   9.304  0.00  0.00    +0.000 A 
ATOM     16  O   NRD     1       0.176  -0.692  10.422  0.00  0.00    +0.000 OA
ATOM     17  C   NRD     1      -0.964  -0.653   8.379  0.00  0.00    +0.000 A 
ATOM     18  C   NRD     1      -1.098  -0.155   7.149  0.00  0.00    +0.000 A 
ATOM     19  O   NRD     1      -2.115  -0.621   6.323  0.00  0.00    +0.000 OA
ENDROOT
BRANCH   1  20
ATOM     20  N   NRD     1      -4.382  -0.536   2.041  0.00  0.00    +0.000 N 
BRANCH  20  22
ATOM     21  C   NRD     1      -3.371  -1.009  -0.292  0.00  0.00    +0.000 C 
ATOM     22  C   NRD     1      -4.233  -0.165   0.624  0.00  0.00    +0.000 C 
ENDBRANCH  20  22
BRANCH  20  23
ATOM     23  C   NRD     1      -5.462  -1.284   2.706  0.00  0.00    +0.000 C 
ATOM     24  C   NRD     1      -6.788  -0.606   2.985  0.00  0.00    +0.000 C 
ENDBRANCH  20  23
ENDBRANCH   1  20
TORSDOF 3
ENDMDL
