MODEL 1
REMARK VINA RESULT:    -8.042      0.000      0.000
REMARK INTER + INTRA:          -8.457
REMARK INTER:                  -9.452
REMARK INTRA:                   0.995
REMARK UNBOUND:                 0.995
REMARK  Name = NileRed 
REMARK  5 active torsions:
REMARK  status: ('A' for Active; 'I' for Inactive)
REMARK    1  A    between atoms: C_1  and  C_2
REMARK    2  A    between atoms: C_2  and  N_3
REMARK    3  A    between atoms: N_3  and  C_4
REMARK    4  A    between atoms: N_3  and  C_6
REMARK    5  A    between atoms: C_4  and  C_5
REMARK                            x       y       z     vdW  Elec       q    Type
REMARK                         _______ _______ _______ _____ _____    ______ ____
ROOT
ATOM      1  C   NRD     1       2.893   1.662  -0.800  0.00  0.00    +0.000 A 
ATOM      2  C   NRD     1       2.521   1.216   0.479  0.00  0.00    +0.000 A 
ATOM      3  C   NRD     1       1.188   0.912   0.790  0.00  0.00    +0.000 A 
ATOM      4  C   NRD     1       0.176   1.037  -0.163  0.00  0.00    +0.000 A 
ATOM      5  C   NRD     1       0.525   1.471  -1.438  0.00  0.00    +0.000 A 
ATOM      6  C   NRD     1       1.859   1.781  -1.749  0.00  0.00    +0.000 A 
ATOM      7  N   NRD     1      -1.170   0.743   0.108  0.00  0.00    +0.000 NA
ATOM      8  C   NRD     1      -1.452   0.352   1.315  0.00  0.00    +0.000 A 
ATOM      9  C   NRD     1      -2.852   0.027   1.679  0.00  0.00    +0.000 A 
ATOM     10  C   NRD     1      -3.868   0.138   0.719  0.00  0.00    +0.000 A 
ATOM     11  C   NRD     1      -5.190  -0.170   1.050  0.00  0.00    +0.000 A 
ATOM     12  C   NRD     1      -5.506  -0.590   2.342  0.00  0.00    +0.000 A 
ATOM     13  C   NRD     1      -4.501  -0.699   3.303  0.00  0.00    +0.000 A 
ATOM     14  C   NRD     1      -3.173  -0.390   2.969  0.00  0.00    +0.000 A 
ATOM     15  C   NRD     1      -2.123  -0.510   3.998  0.00  0.00    +0.000 A 
ATOM     16  O   NRD     1      -2.376  -0.866   5.141  0.00  0.00    +0.000 OA
ATOM     17  C   NRD     1      -0.739  -0.187   3.612  0.00  0.00    +0.000 A 
ATOM     18  C   NRD     1      -0.413   0.210   2.381  0.00  0.00    +0.000 A 
ATOM     19  O   NRD     1       0.914   0.499   2.079  0.00  0.00    +0.000 OA
ENDROOT
BRANCH   1  20
ATOM     20  N   NRD     1       4.236   1.981  -1.121  0.00  0.00    +0.000 N 
BRANCH  20  22
ATOM     21  C   NRD     1       3.561   1.476  -3.566  0.00  0.00    +0.000 C 
ATOM     22  C   NRD     1       4.625   1.742  -2.521  0.00  0.00    +0.000 C 
ENDBRANCH  20  22
BRANCH  20  23
ATOM     23  C   NRD     1       5.051   2.452   0.012  0.00  0.00    +0.000 C 
ATOM     24  C   NRD     1       6.311   1.704   0.396  0.00  0.00    +0.000 C 
ENDBRANCH  20  23
ENDBRANCH   1  20
TORSDOF 3
ENDMDL
