MODEL 1
REMARK VINA RESULT:    -8.430      0.000      0.000
REMARK INTER + INTRA:         -10.342
REMARK INTER:                  -9.908
REMARK INTRA:                  -0.434
REMARK UNBOUND:                -0.434
REMARK  Name = NileRed 
REMARK  5 active torsions:
REMARK  status: ('A' for Active; 'I' for Inactive)
REMARK    1  A    between atoms: C_1  and  C_2
REMARK    2  A    between atoms: C_2  and  N_3
REMARK    3  A    between atoms: N_3  and  C_4
REMARK    4  A    between atoms: N_3  and  C_6
REMARK    5  A    between atoms: C_4  and  C_5
REMARK                            x       y       z     vdW  Elec       q    Type
REMARK                         _______ _______ _______ _____ _____    ______ ____
ROOT
ATOM      1  C   NRD     1      -0.352  -0.061   7.678  0.00  0.00    +0.000 A 
ATOM      2  C   NRD     1       0.180   0.045   6.383  0.00  0.00    +0.000 A 
ATOM      3  C   NRD     1      -0.644   0.019   5.248  0.00  0.00    +0.000 A 
ATOM      4  C   NRD     1      -2.028  -0.109   5.362  0.00  0.00    +0.000 A 
ATOM      5  C   NRD     1      -2.576  -0.209   6.637  0.00  0.00    +0.000 A 
ATOM      6  C   NRD     1      -1.752  -0.189   7.774  0.00  0.00    +0.000 A 
ATOM      7  N   NRD     1      -2.887  -0.139   4.251  0.00  0.00    +0.000 NA
ATOM      8  C   NRD     1      -2.332  -0.054   3.080  0.00  0.00    +0.000 A 
ATOM      9  C   NRD     1      -3.173  -0.083   1.859  0.00  0.00    +0.000 A 
ATOM     10  C   NRD     1      -4.566  -0.197   1.971  0.00  0.00    +0.000 A 
ATOM     11  C   NRD     1      -5.367  -0.221   0.827  0.00  0.00    +0.000 A 
ATOM     12  C   NRD     1      -4.784  -0.130  -0.437  0.00  0.00    +0.000 A 
ATOM     13  C   NRD     1      -3.399  -0.020  -0.555  0.00  0.00    +0.000 A 
ATOM     14  C   NRD     1      -2.593   0.004   0.594  0.00  0.00    +0.000 A 
ATOM     15  C   NRD     1      -1.130   0.121   0.450  0.00  0.00    +0.000 A 
ATOM     16  O   NRD     1      -0.594   0.191  -0.648  0.00  0.00    +0.000 OA
ATOM     17  C   NRD     1      -0.316   0.152   1.676  0.00  0.00    +0.000 A 
ATOM     18  C   NRD     1      -0.854   0.074   2.894  0.00  0.00    +0.000 A 
ATOM     19  O   NRD     1      -0.029   0.111   4.014  0.00  0.00    +0.000 OA
ENDROOT
BRANCH   1  20
ATOM     20  N   NRD     1       0.472  -0.046   8.831  0.00  0.00    +0.000 N 
BRANCH  20  22
ATOM     21  C   NRD     1       0.686  -2.531   9.519  0.00  0.00    +0.000 C 
ATOM     22  C   NRD     1       0.215  -1.120   9.806  0.00  0.00    +0.000 C 
ENDBRANCH  20  22
BRANCH  20  23
ATOM     23  C   NRD     1       1.424   1.076   8.900  0.00  0.00    +0.000 C 
ATOM     24  C   NRD     1       0.910   2.489   9.084  0.00  0.00    +0.000 C 
ENDBRANCH  20  23
ENDBRANCH   1  20
TORSDOF 3
ENDMDL
