MODEL 1
REMARK VINA RESULT:    -7.506      0.000      0.000
REMARK INTER + INTRA:          -8.421
REMARK INTER:                  -8.823
REMARK INTRA:                   0.402
REMARK UNBOUND:                 0.402
REMARK  Name = NileRed 
REMARK  5 active torsions:
REMARK  status: ('A' for Active; 'I' for Inactive)
REMARK    1  A    between atoms: C_1  and  C_2
REMARK    2  A    between atoms: C_2  and  N_3
REMARK    3  A    between atoms: N_3  and  C_4
REMARK    4  A    between atoms: N_3  and  C_6
REMARK    5  A    between atoms: C_4  and  C_5
REMARK                            x       y       z     vdW  Elec       q    Type
REMARK                         _______ _______ _______ _____ _____    ______ ____
ROOT
ATOM      1  C   NRD     1      -3.157   0.101   2.043  0.00  0.00    +0.000 A 
ATOM      2  C   NRD     1      -2.116   0.802   2.682  0.00  0.00    +0.000 A 
ATOM      3  C   NRD     1      -1.738   0.514   4.004  0.00  0.00    +0.000 A 
ATOM      4  C   NRD     1      -2.374  -0.493   4.731  0.00  0.00    +0.000 A 
ATOM      5  C   NRD     1      -3.396  -1.203   4.114  0.00  0.00    +0.000 A 
ATOM      6  C   NRD     1      -3.782  -0.908   2.797  0.00  0.00    +0.000 A 
ATOM      7  N   NRD     1      -2.019  -0.814   6.050  0.00  0.00    +0.000 NA
ATOM      8  C   NRD     1      -1.059  -0.122   6.585  0.00  0.00    +0.000 A 
ATOM      9  C   NRD     1      -0.625  -0.411   7.972  0.00  0.00    +0.000 A 
ATOM     10  C   NRD     1      -1.250  -1.435   8.701  0.00  0.00    +0.000 A 
ATOM     11  C   NRD     1      -0.849  -1.718  10.008  0.00  0.00    +0.000 A 
ATOM     12  C   NRD     1       0.176  -0.980  10.596  0.00  0.00    +0.000 A 
ATOM     13  C   NRD     1       0.801   0.040   9.879  0.00  0.00    +0.000 A 
ATOM     14  C   NRD     1       0.400   0.325   8.561  0.00  0.00    +0.000 A 
ATOM     15  C   NRD     1       1.079   1.404   7.821  0.00  0.00    +0.000 A 
ATOM     16  O   NRD     1       1.986   2.059   8.322  0.00  0.00    +0.000 OA
ATOM     17  C   NRD     1       0.635   1.668   6.439  0.00  0.00    +0.000 A 
ATOM     18  C   NRD     1      -0.352   0.969   5.856  0.00  0.00    +0.000 A 
ATOM     19  O   NRD     1      -0.720   1.267   4.549  0.00  0.00    +0.000 OA
ENDROOT
BRANCH   1  20
ATOM     20  N   NRD     1      -3.553   0.396   0.715  0.00  0.00    +0.000 N 
BRANCH  20  22
ATOM     21  C   NRD     1      -6.116   0.078   0.736  0.00  0.00    +0.000 C 
ATOM     22  C   NRD     1      -4.904   0.972   0.568  0.00  0.00    +0.000 C 
ENDBRANCH  20  22
BRANCH  20  23
ATOM     23  C   NRD     1      -2.572   0.051  -0.332  0.00  0.00    +0.000 C 
ATOM     24  C   NRD     1      -1.125  -0.182   0.056  0.00  0.00    +0.000 C 
ENDBRANCH  20  23
ENDBRANCH   1  20
TORSDOF 3
ENDMDL
