MODEL 1
REMARK VINA RESULT:    -7.150      0.000      0.000
REMARK INTER + INTRA:          -8.779
REMARK INTER:                  -8.404
REMARK INTRA:                  -0.375
REMARK UNBOUND:                -0.375
REMARK  Name = NileRed 
REMARK  5 active torsions:
REMARK  status: ('A' for Active; 'I' for Inactive)
REMARK    1  A    between atoms: C_1  and  C_2
REMARK    2  A    between atoms: C_2  and  N_3
REMARK    3  A    between atoms: N_3  and  C_4
REMARK    4  A    between atoms: N_3  and  C_6
REMARK    5  A    between atoms: C_4  and  C_5
REMARK                            x       y       z     vdW  Elec       q    Type
REMARK                         _______ _______ _______ _____ _____    ______ ____
ROOT
ATOM      1  C   NRD     1      -3.080  -0.132   1.567  0.00  0.00    +0.000 A 
ATOM      2  C   NRD     1      -2.405  -0.065   0.333  0.00  0.00    +0.000 A 
ATOM      3  C   NRD     1      -1.066   0.351   0.248  0.00  0.00    +0.000 A 
ATOM      4  C   NRD     1      -0.347   0.701   1.392  0.00  0.00    +0.000 A 
ATOM      5  C   NRD     1      -0.992   0.630   2.620  0.00  0.00    +0.000 A 
ATOM      6  C   NRD     1      -2.334   0.226   2.704  0.00  0.00    +0.000 A 
ATOM      7  N   NRD     1       0.994   1.113   1.348  0.00  0.00    +0.000 NA
ATOM      8  C   NRD     1       1.554   1.164   0.177  0.00  0.00    +0.000 A 
ATOM      9  C   NRD     1       2.970   1.584   0.055  0.00  0.00    +0.000 A 
ATOM     10  C   NRD     1       3.701   1.920   1.205  0.00  0.00    +0.000 A 
ATOM     11  C   NRD     1       5.036   2.315   1.102  0.00  0.00    +0.000 A 
ATOM     12  C   NRD     1       5.649   2.379  -0.148  0.00  0.00    +0.000 A 
ATOM     13  C   NRD     1       4.928   2.049  -1.296  0.00  0.00    +0.000 A 
ATOM     14  C   NRD     1       3.583   1.648  -1.194  0.00  0.00    +0.000 A 
ATOM     15  C   NRD     1       2.843   1.300  -2.420  0.00  0.00    +0.000 A 
ATOM     16  O   NRD     1       3.368   1.346  -3.526  0.00  0.00    +0.000 OA
ATOM     17  C   NRD     1       1.437   0.877  -2.272  0.00  0.00    +0.000 A 
ATOM     18  C   NRD     1       0.830   0.810  -1.077  0.00  0.00    +0.000 A 
ATOM     19  O   NRD     1      -0.497   0.402  -1.007  0.00  0.00    +0.000 OA
ENDROOT
BRANCH   1  20
ATOM     20  N   NRD     1      -4.434  -0.537   1.658  0.00  0.00    +0.000 N 
BRANCH  20  22
ATOM     21  C   NRD     1      -6.041  -1.280   3.538  0.00  0.00    +0.000 C 
ATOM     22  C   NRD     1      -4.749  -1.458   2.768  0.00  0.00    +0.000 C 
ENDBRANCH  20  22
BRANCH  20  23
ATOM     23  C   NRD     1      -5.327  -0.010   0.609  0.00  0.00    +0.000 C 
ATOM     24  C   NRD     1      -5.668   1.468   0.600  0.00  0.00    +0.000 C 
ENDBRANCH  20  23
ENDBRANCH   1  20
TORSDOF 3
ENDMDL
