MODEL 1
REMARK VINA RESULT:    -6.852      0.000      0.000
REMARK INTER + INTRA:          -8.416
REMARK INTER:                  -8.053
REMARK INTRA:                  -0.362
REMARK UNBOUND:                -0.362
REMARK  Name = NileRed 
REMARK  5 active torsions:
REMARK  status: ('A' for Active; 'I' for Inactive)
REMARK    1  A    between atoms: C_1  and  C_2
REMARK    2  A    between atoms: C_2  and  N_3
REMARK    3  A    between atoms: N_3  and  C_4
REMARK    4  A    between atoms: N_3  and  C_6
REMARK    5  A    between atoms: C_4  and  C_5
REMARK                            x       y       z     vdW  Elec       q    Type
REMARK                         _______ _______ _______ _____ _____    ______ ____
ROOT
ATOM      1  C   NRD     1       0.251   0.699   7.966  0.00  0.00    +0.000 A 
ATOM      2  C   NRD     1      -0.931   0.062   7.540  0.00  0.00    +0.000 A 
ATOM      3  C   NRD     1      -1.391   0.174   6.217  0.00  0.00    +0.000 A 
ATOM      4  C   NRD     1      -0.683   0.913   5.269  0.00  0.00    +0.000 A 
ATOM      5  C   NRD     1       0.491   1.540   5.667  0.00  0.00    +0.000 A 
ATOM      6  C   NRD     1       0.946   1.438   6.992  0.00  0.00    +0.000 A 
ATOM      7  N   NRD     1      -1.108   1.043   3.937  0.00  0.00    +0.000 NA
ATOM      8  C   NRD     1      -2.211   0.440   3.612  0.00  0.00    +0.000 A 
ATOM      9  C   NRD     1      -2.717   0.526   2.222  0.00  0.00    +0.000 A 
ATOM     10  C   NRD     1      -1.998   1.253   1.261  0.00  0.00    +0.000 A 
ATOM     11  C   NRD     1      -2.463   1.340  -0.052  0.00  0.00    +0.000 A 
ATOM     12  C   NRD     1      -3.649   0.703  -0.415  0.00  0.00    +0.000 A 
ATOM     13  C   NRD     1      -4.370  -0.021   0.536  0.00  0.00    +0.000 A 
ATOM     14  C   NRD     1      -3.901  -0.111   1.859  0.00  0.00    +0.000 A 
ATOM     15  C   NRD     1      -4.677  -0.885   2.844  0.00  0.00    +0.000 A 
ATOM     16  O   NRD     1      -5.719  -1.456   2.542  0.00  0.00    +0.000 OA
ATOM     17  C   NRD     1      -4.150  -0.963   4.221  0.00  0.00    +0.000 A 
ATOM     18  C   NRD     1      -3.011  -0.355   4.588  0.00  0.00    +0.000 A 
ATOM     19  O   NRD     1      -2.568  -0.469   5.901  0.00  0.00    +0.000 OA
ENDROOT
BRANCH   1  20
ATOM     20  N   NRD     1       0.714   0.601   9.301  0.00  0.00    +0.000 N 
BRANCH  20  22
ATOM     21  C   NRD     1       0.810   2.599  10.934  0.00  0.00    +0.000 C 
ATOM     22  C   NRD     1       1.428   1.787   9.814  0.00  0.00    +0.000 C 
ENDBRANCH  20  22
BRANCH  20  23
ATOM     23  C   NRD     1       0.448  -0.685   9.973  0.00  0.00    +0.000 C 
ATOM     24  C   NRD     1       1.615  -1.516  10.470  0.00  0.00    +0.000 C 
ENDBRANCH  20  23
ENDBRANCH   1  20
TORSDOF 3
ENDMDL
