REMARK  Name = ../example/scapCC4_Stauro/STR.pdb
REMARK  0 active torsions:
REMARK  status: ('A' for Active; 'I' for Inactive)
REMARK                            x       y       z     vdW  Elec       q    Type
REMARK                         _______ _______ _______ _____ _____    ______ ____
ROOT
ATOM      1  C1  STR     1       1.489  -2.691   0.294  0.00  0.00    +0.000 C 
ATOM      2  C2  STR     1       0.871  -1.347   0.054  0.00  0.00    +0.000 A 
ATOM      3  C3  STR     1       1.481  -0.118  -0.245  0.00  0.00    +0.000 A 
ATOM      4  C4  STR     1       2.783   0.267  -0.414  0.00  0.00    +0.000 A 
ATOM      5  C5  STR     1       3.976  -0.447  -0.345  0.00  0.00    +0.000 A 
ATOM      6  C6  STR     1       5.167   0.263  -0.574  0.00  0.00    +0.000 A 
ATOM      7  C7  STR     1       5.137   1.646  -0.862  0.00  0.00    +0.000 A 
ATOM      8  C8  STR     1       3.915   2.340  -0.925  0.00  0.00    +0.000 A 
ATOM      9  C9  STR     1       2.745   1.620  -0.695  0.00  0.00    +0.000 A 
ATOM     10  N1  STR     1       1.484   2.116  -0.714  0.00  0.00    +0.000 NA
ATOM     11  C10 STR     1       0.724   1.032  -0.435  0.00  0.00    +0.000 A 
ATOM     12  C11 STR     1      -0.670   0.968  -0.327  0.00  0.00    +0.000 A 
ATOM     13  C12 STR     1      -1.282  -0.245  -0.031  0.00  0.00    +0.000 A 
ATOM     14  C13 STR     1      -0.511  -1.405   0.160  0.00  0.00    +0.000 A 
ATOM     15  C14 STR     1      -0.844  -2.772   0.469  0.00  0.00    +0.000 C 
ATOM     16  O1  STR     1      -2.003  -3.229   0.643  0.00  0.00    +0.000 OA
ATOM     17  N2  STR     1       0.337  -3.563   0.555  0.00  0.00    +0.000 NA
ATOM     18  C15 STR     1      -2.626   0.022   0.003  0.00  0.00    +0.000 A 
ATOM     19  C16 STR     1      -3.730  -0.791   0.249  0.00  0.00    +0.000 A 
ATOM     20  C17 STR     1      -4.999  -0.189   0.208  0.00  0.00    +0.000 A 
ATOM     21  C18 STR     1      -5.134   1.188  -0.071  0.00  0.00    +0.000 A 
ATOM     22  C19 STR     1      -4.002   1.986  -0.315  0.00  0.00    +0.000 A 
ATOM     23  C20 STR     1      -2.751   1.372  -0.271  0.00  0.00    +0.000 A 
ATOM     24  N3  STR     1      -1.557   1.978  -0.479  0.00  0.00    +0.000 NA
ENDROOT
TORSDOF 0
